REMARK  7 active torsions:
REMARK  status: ('A' for Active; 'I' for Inactive)
REMARK    1  A    between atoms: C_1  and  C_4 
REMARK    2  A    between atoms: C_1  and  O_9 
REMARK    3  A    between atoms: C_2  and  C_4 
REMARK    4  A    between atoms: C_2  and  O_11 
REMARK    5  A    between atoms: C_3  and  C_4 
REMARK    6  A    between atoms: C_3  and  O_13 
REMARK    7  A    between atoms: C_4  and  N_5 
ROOT
HETATM    1  C   UNK     0       2.874   0.770   0.000  0.00  0.00     0.233 C 
ENDROOT
BRANCH   1   2
HETATM    2  C   UNK     0       4.207   1.540   0.000  0.00  0.00     0.170 C 
BRANCH   2   3
HETATM    3  O   UNK     0       4.207   3.080   0.000  0.00  0.00    -0.380 OA
HETATM    4  HO  UNK     0       5.030   3.555   0.000  1.00  0.00     0.211 HD
ENDBRANCH   2   3
ENDBRANCH   1   2
BRANCH   1   5
HETATM    5  C   UNK     0       3.644  -0.564   0.000  0.00  0.00     0.170 C 
BRANCH   5   6
HETATM    6  O   UNK     0       5.184  -0.564   0.000  0.00  0.00    -0.380 OA
HETATM    7  HO  UNK     0       5.659  -1.387   0.000  1.00  0.00     0.211 HD
ENDBRANCH   5   6
ENDBRANCH   1   5
BRANCH   1   8
HETATM    8  C   UNK     0       1.540   0.000   0.000  0.00  0.00     0.170 C 
BRANCH   8   9
HETATM    9  O   UNK     0       0.206   0.770   0.000  0.00  0.00    -0.380 OA
HETATM   10  HO  UNK     0      -0.617   0.295   0.000  1.00  0.00     0.211 HD
ENDBRANCH   8   9
ENDBRANCH   1   8
BRANCH   1  11
HETATM   11  N   UNK     0       2.104   2.104   0.000  0.00  0.00    -0.061 N 
HETATM   12  HN3 UNK     0       2.291   2.801   0.721  1.00  0.00     0.275 HD
HETATM   13  HN2 UNK     0       2.291   2.801  -0.721  1.00  0.00     0.275 HD
HETATM   14  HN1 UNK     0       1.221   1.594   0.000  1.00  0.00     0.275 HD
ENDBRANCH   1  11
TORSDOF 7
